file 399126 1741963432                                          
version 3
run General-0-20250314-07:41:47-23268
attr configname General
attr datetime 20250314-07:41:47
attr datetimef 20250314-074147
attr experiment General
attr inifile omnetpp.ini
attr iterationvars ""
attr iterationvarsd ""
attr iterationvarsf ""
attr measurement ""
attr network DDoSNetwork
attr processid 23268
attr repetition 0
attr replication #0
attr resultdir results
attr runnumber 0
attr seedset 0
config image-path ../inet4.5/images
config network DDoSNetwork
config sim-time-limit 30s
config record-eventlog true
config *.visualizer.*.packetDropVisualizer.displayPacketDrops true
config *.visualizer.*.transportConnectionVisualizer.displayTransportConnections false
config *.visualizer.*.packetFlowVisualizer.displayPacketFlows false
config *.**.tcp.connection.verbose false
config *.router.eth[*].queue.typename REDQueue
config *.router.eth[*].queue.red.minth 5
config *.router.eth[*].queue.red.maxth 15
config *.router.eth[*].queue.red.wq 0.002
config *.router.eth[*].queue.red.maxp 0.1
config *.router.eth[*].queue.numDroppedPackets:count.record true
config **.server.numApps 1
config **.server.app[0].typename TcpServerApp
config **.server.app[0].listener.localAddress "\"10.0.0.1\""
config **.server.app[0].listener.localPort 80
config **.server.app[0].connection[*].source.packetLength 1000b
config **.server.app[0].connection[*].source.productionInterval 3s
config **.attacker[*].numApps 1
config **.attacker[*].app[0].typename TcpClientApp
config **.attacker[*].app[0].io.connectAddress "\"10.0.0.1\""
config **.attacker[*].app[0].io.connectPort 80
config **.attacker[*].app[0].source.packetLength 1B
config **.attacker[*].app[0].source.productionInterval 0.1s
config **.legitimateClient[*].numApps 1
config **.legitimateClient[*].app[0].typename TcpClientApp
config **.legitimateClient[*].app[0].io.connectAddress "\"10.0.0.1\""
config **.legitimateClient[*].app[0].io.connectPort 80
config **.legitimateClient[*].app[0].source.packetLength 1000B
config **.legitimateClient[*].app[0].source.productionInterval 3s
config *.tcp.msl 1s
config *.tcp.synRetries 2

vector 0 DDoSNetwork.router.ethernet encapPk:vector(packetBytes) ETV
attr interpolationmode none
attr recordingmode vector(packetBytes)
attr source encapPk
attr title "packets encapsulated, packetBytes"
vector 1 DDoSNetwork.router.ethernet decapPk:vector(packetBytes) ETV
attr interpolationmode none
attr recordingmode vector(packetBytes)
attr source decapPk
attr title "packets decapsulated, packetBytes"
vector 2 DDoSNetwork.router.ethernet pauseSent:vector ETV
attr recordingmode vector
attr title "pause sent"
vector 3 DDoSNetwork.router.lo[0].lo rcvdPkFromHl:vector(packetBytes) ETV
attr interpolationmode none
attr recordingmode vector(packetBytes)
attr source packetReceivedFromUpper
attr title "packets received from higher layer, packetBytes"
vector 4 DDoSNetwork.router.lo[0].lo passedUpPk:vector(packetBytes) ETV
attr interpolationmode none
attr recordingmode vector(packetBytes)
attr source packetSentToUpper
attr title "packets passed to higher layer, packetBytes"
vector 5 DDoSNetwork.router.lo[0] packetDropInterfaceDown:vector(packetBytes) ETV
attr interpolationmode none
attr recordingmode vector(packetBytes)
attr source packetDropReasonIsInterfaceDown(packetDropped)
attr title "packet drops: interface down, packetBytes"
vector 6 DDoSNetwork.router.lo[0] packetDropNoCarrier:vector(packetBytes) ETV
attr interpolationmode none
attr recordingmode vector(packetBytes)
attr source packetDropReasonIsNoCarrier(packetDropped)
attr title "packet drops: no carrier, packetBytes"
vector 7 DDoSNetwork.router.eth[0].queue.red incomingPacketLengths:vector ETV
attr interpolationmode none
attr recordingmode vector
attr source "packetLength(merge(packetPushedIn, packetPulledIn))"
attr title "incoming packet lengths"
attr unit b
vector 8 DDoSNetwork.router.eth[0].queue.red incomingDataRate:vector ETV
attr interpolationmode linear
attr recordingmode vector
attr source "throughput(merge(packetPushedIn, packetPulledIn))"
attr title "incoming data rate"
attr unit bps
vector 9 DDoSNetwork.router.eth[0].queue.red outgoingPacketLengths:vector ETV
attr interpolationmode none
attr recordingmode vector
attr source "packetLength(merge(packetPushedOut, packetPulledOut))"
attr title "outgoing packet lengths"
attr unit b
vector 10 DDoSNetwork.router.eth[0].queue.red outgoingDataRate:vector ETV
attr interpolationmode linear
attr recordingmode vector
attr source "throughput(merge(packetPushedOut, packetPulledOut))"
attr title "outgoing data rate"
attr unit bps
vector 11 DDoSNetwork.router.eth[0].queue.red droppedPacketLengths:vector ETV
attr interpolationmode none
attr recordingmode vector
attr source packetLength(packetDropped)
attr title "dropped packet lengths"
attr unit b
vector 12 DDoSNetwork.router.eth[0].queue.red droppedDataRate:vector ETV
attr interpolationmode linear
attr recordingmode vector
attr source throughput(packetDropped)
attr title "dropped data rate"
attr unit bps
vector 13 DDoSNetwork.router.eth[0].queue.red flowIncomingPacketLengths:vector ETV
attr interpolationmode none
attr recordingmode vector
attr source "packetLength(demuxFlow(merge(packetPushedIn, packetPulledIn)))"
attr title "flow specific incoming packet lengths"
attr unit b
vector 14 DDoSNetwork.router.eth[0].queue.red flowIncomingDataRate:vector ETV
attr interpolationmode linear
attr recordingmode vector
attr source "throughput(demuxFlow(merge(packetPushedIn, packetPulledIn)))"
attr title "flow specific incoming data rate"
attr unit bps
vector 15 DDoSNetwork.router.eth[0].queue.red flowOutgoingPacketLengths:vector ETV
attr interpolationmode none
attr recordingmode vector
attr source "packetLength(demuxFlow(merge(packetPushedOut, packetPulledOut)))"
attr title "flow specific outgoing packet lengths"
attr unit b
vector 16 DDoSNetwork.router.eth[0].queue.red flowOutgoingDataRate:vector ETV
attr interpolationmode linear
attr recordingmode vector
attr source "throughput(demuxFlow(merge(packetPushedOut, packetPulledOut)))"
attr title "flow specific outgoing data rate"
attr unit bps
vector 17 DDoSNetwork.router.eth[0].queue.red flowDroppedPacketLengths:vector ETV
attr interpolationmode none
attr recordingmode vector
attr source packetLength(demuxFlow(packetDropped))
attr title "flow specific dropped packet lengths"
attr unit b
vector 18 DDoSNetwork.router.eth[0].queue.red flowDroppedDataRate:vector ETV
attr interpolationmode linear
attr recordingmode vector
attr source throughput(demuxFlow(packetDropped))
attr title "flow specific dropped data rate"
attr unit bps
vector 19 DDoSNetwork.router.eth[0].queue.red packetDropCongestion:vector(packetBytes) ETV
attr interpolationmode none
attr recordingmode vector(packetBytes)
attr source packetDropReasonIsCongestion(packetDropped)
attr title "packet drop: congestion, packetBytes"
vector 20 DDoSNetwork.router.eth[0].queue.fifo queueLength:vector ETV
attr autoWarmupFilter false
attr interpolationmode sample-hold
attr recordingmode vector
attr source "warmup(atomic(constant0(packetPushEnded) + count(packetPushStarted) - count(packetPulled) - count(packetRemoved) - count(packetDropped)))"
attr title "queue length"
attr unit pk
vector 21 DDoSNetwork.router.eth[0].queue.fifo queueBitLength:vector ETV
attr autoWarmupFilter false
attr interpolationmode sample-hold
attr recordingmode vector
attr source "warmup(atomic(constant0(packetPushEnded) + sum(packetLength(packetPushStarted)) - sum(packetLength(packetPulled)) - sum(packetLength(packetRemoved)) - sum(packetLength(packetDropped))))"
attr title "queue bit length"
attr unit b
vector 22 DDoSNetwork.router.eth[0].queue.fifo queueingTime:vector ETV
attr interpolationmode none
attr recordingmode vector
attr source queueingTime(packetPulled)
attr title "queueing times"
attr unit s
vector 23 DDoSNetwork.router.eth[0].queue.fifo incomingPacketLengths:vector ETV
attr interpolationmode none
attr recordingmode vector
attr source packetLength(packetPushStarted)
attr title "incoming packet lengths"
attr unit b
vector 24 DDoSNetwork.router.eth[0].queue.fifo incomingDataRate:vector ETV
attr interpolationmode linear
attr recordingmode vector
attr source throughput(packetPushStarted)
attr title "incoming datarate"
attr unit bps
vector 25 DDoSNetwork.router.eth[0].queue.fifo outgoingPacketLengths:vector ETV
attr interpolationmode none
attr recordingmode vector
attr source packetLength(packetPulled)
attr title "outgoing packet lengths"
attr unit b
vector 26 DDoSNetwork.router.eth[0].queue.fifo outgoingDataRate:vector ETV
attr interpolationmode linear
attr recordingmode vector
attr source throughput(packetPulled)
attr title "outgoing datarate"
attr unit bps
vector 27 DDoSNetwork.router.eth[0].queue.fifo droppedPacketLengthsQueueOverflow:vector ETV
attr interpolationmode none
attr recordingmode vector
attr source packetLength(packetDropReasonIsQueueOverflow(packetDropped))
attr title "dropped packet lengths: queue overflow"
attr unit b
vector 28 DDoSNetwork.router.eth[0].queue.fifo flowQueueingTime:vector ETV
attr interpolationmode none
attr recordingmode vector
attr source queueingTime(demuxFlow(packetPulled))
attr title "flow queueing times"
attr unit s
vector 29 DDoSNetwork.router.eth[0].queue.fifo flowIncomingDataRate:vector ETV
attr interpolationmode linear
attr recordingmode vector
attr source throughput(flowPacketLength(demuxFlow(packetPushStarted)))
attr title "flow specific incoming data rate"
attr unit bps
vector 30 DDoSNetwork.router.eth[0].queue.fifo flowOutgoingDataRate:vector ETV
attr interpolationmode linear
attr recordingmode vector
attr source throughput(flowPacketLength(demuxFlow(packetPulled)))
attr title "flow specific outgoing data rate"
attr unit bps
vector 31 DDoSNetwork.router.eth[0].queue queueLength:vector ETV
attr autoWarmupFilter false
attr interpolationmode sample-hold
attr recordingmode vector
attr source "warmup(atomic(constant0(localSignal(packetPushEnded)) + count(localSignal(packetPushStarted)) - count(localSignal(packetPulled)) - count(localSignal(packetRemoved)) - count(localSignal(packetDropped))))"
attr title "queue length"
attr unit pk
vector 32 DDoSNetwork.router.eth[0].queue queueBitLength:vector ETV
attr autoWarmupFilter false
attr interpolationmode sample-hold
attr recordingmode vector
attr source "warmup(atomic(constant0(localSignal(packetPushEnded)) + sum(packetLength(localSignal(packetPushStarted))) - sum(packetLength(localSignal(packetPulled))) - sum(packetLength(localSignal(packetRemoved))) - sum(packetLength(localSignal(packetDropped)))))"
attr title "queue bit length"
attr unit b
vector 33 DDoSNetwork.router.eth[0].queue queueingTime:vector ETV
attr interpolationmode none
attr recordingmode vector
attr source queueingTime(localSignal(packetPulled))
attr title "queueing times"
attr unit s
vector 34 DDoSNetwork.router.eth[0].queue incomingPacketLengths:vector ETV
attr interpolationmode none
attr recordingmode vector
attr source packetLength(localSignal(packetPushStarted))
attr title "incoming packet lengths"
attr unit b
vector 35 DDoSNetwork.router.eth[0].queue incomingDataRate:vector ETV
attr interpolationmode linear
attr recordingmode vector
attr source throughput(localSignal(packetPushStarted))
attr title "incoming datarate"
attr unit bps
vector 36 DDoSNetwork.router.eth[0].queue outgoingPacketLengths:vector ETV
attr interpolationmode none
attr recordingmode vector
attr source packetLength(localSignal(packetPulled))
attr title "outgoing packet lengths"
attr unit b
vector 37 DDoSNetwork.router.eth[0].queue outgoingDataRate:vector ETV
attr interpolationmode linear
attr recordingmode vector
attr source throughput(localSignal(packetPulled))
attr title "outgoing datarate"
attr unit bps
vector 38 DDoSNetwork.router.eth[0].queue droppedPacketLengthsQueueOverflow:vector ETV
attr interpolationmode none
attr recordingmode vector
attr source packetLength(packetDropReasonIsQueueOverflow(localSignal(packetDropped)))
attr title "dropped packet lengths: queue overflow"
attr unit b
vector 39 DDoSNetwork.router.eth[0].queue flowQueueingTime:vector ETV
attr interpolationmode none
attr recordingmode vector
attr source queueingTime(demuxFlow(localSignal(packetPulled)))
attr title "flow queueing times"
attr unit s
vector 40 DDoSNetwork.router.eth[0].queue flowIncomingDataRate:vector ETV
attr interpolationmode linear
attr recordingmode vector
attr source throughput(flowPacketLength(demuxFlow(localSignal(packetPushStarted))))
attr title "flow specific incoming data rate"
attr unit bps
vector 41 DDoSNetwork.router.eth[0].queue flowOutgoingDataRate:vector ETV
attr interpolationmode linear
attr recordingmode vector
attr source throughput(flowPacketLength(demuxFlow(localSignal(packetPulled))))
attr title "flow specific outgoing data rate"
attr unit bps
vector 42 DDoSNetwork.router.eth[0].mac txPk:vector(packetBytes) ETV
attr interpolationmode none
attr recordingmode vector(packetBytes)
attr source packetSentToLower
attr title "packets transmitted, packetBytes"
vector 43 DDoSNetwork.router.eth[0].mac rxPkOk:vector(packetBytes) ETV
attr interpolationmode none
attr recordingmode vector(packetBytes)
attr source rxPkOk
attr title "packets received OK, packetBytes"
vector 44 DDoSNetwork.router.eth[0].mac passedUpPk:vector(packetBytes) ETV
attr interpolationmode none
attr recordingmode vector(packetBytes)
attr source packetSentToUpper
attr title "packets passed to higher layer, packetBytes"
vector 45 DDoSNetwork.router.eth[0].mac txPausePkUnits:vector ETV
attr interpolationmode none
attr recordingmode vector
attr title "pause units sent"
vector 46 DDoSNetwork.router.eth[0].mac rxPausePkUnits:vector ETV
attr interpolationmode none
attr recordingmode vector
attr title "pause units received"
vector 47 DDoSNetwork.router.eth[0].mac packetReceivedFromUpper:vector(packetBytes) ETV
attr interpolationmode none
attr recordingmode vector(packetBytes)
attr source packetReceivedFromUpper
attr title "packet bytes from higher layer, packetBytes"
vector 48 DDoSNetwork.router.eth[0].mac packetDropIncorrectlyReceived:vector(packetBytes) ETV
attr interpolationmode none
attr recordingmode vector(packetBytes)
attr source packetDropReasonIsIncorrectlyReceived(packetDropped)
attr title "packet drop: incorrectly received, packetBytes"
vector 49 DDoSNetwork.router.eth[0].mac packetDropInterfaceDown:vector(packetBytes) ETV
attr interpolationmode none
attr recordingmode vector(packetBytes)
attr source packetDropReasonIsInterfaceDown(packetDropped)
attr title "packet drop: interface down, packetBytes"
vector 50 DDoSNetwork.router.eth[0].mac packetDropNotAddressedToUs:vector(packetBytes) ETV
attr interpolationmode none
attr recordingmode vector(packetBytes)
attr source packetDropReasonIsNotAddressedToUs(packetDropped)
attr title "packet drop: not addressed to us, packetBytes"
vector 51 DDoSNetwork.router.eth[0] packetDropInterfaceDown:vector(packetBytes) ETV
attr interpolationmode none
attr recordingmode vector(packetBytes)
attr source packetDropReasonIsInterfaceDown(packetDropped)
attr title "packet drops: interface down, packetBytes"
vector 52 DDoSNetwork.router.eth[0] packetDropNoCarrier:vector(packetBytes) ETV
attr interpolationmode none
attr recordingmode vector(packetBytes)
attr source packetDropReasonIsNoCarrier(packetDropped)
attr title "packet drops: no carrier, packetBytes"
vector 53 DDoSNetwork.router.eth[1].queue.red incomingPacketLengths:vector ETV
attr interpolationmode none
attr recordingmode vector
attr source "packetLength(merge(packetPushedIn, packetPulledIn))"
attr title "incoming packet lengths"
attr unit b
vector 54 DDoSNetwork.router.eth[1].queue.red incomingDataRate:vector ETV
attr interpolationmode linear
attr recordingmode vector
attr source "throughput(merge(packetPushedIn, packetPulledIn))"
attr title "incoming data rate"
attr unit bps
vector 55 DDoSNetwork.router.eth[1].queue.red outgoingPacketLengths:vector ETV
attr interpolationmode none
attr recordingmode vector
attr source "packetLength(merge(packetPushedOut, packetPulledOut))"
attr title "outgoing packet lengths"
attr unit b
vector 56 DDoSNetwork.router.eth[1].queue.red outgoingDataRate:vector ETV
attr interpolationmode linear
attr recordingmode vector
attr source "throughput(merge(packetPushedOut, packetPulledOut))"
attr title "outgoing data rate"
attr unit bps
vector 57 DDoSNetwork.router.eth[1].queue.red droppedPacketLengths:vector ETV
attr interpolationmode none
attr recordingmode vector
attr source packetLength(packetDropped)
attr title "dropped packet lengths"
attr unit b
vector 58 DDoSNetwork.router.eth[1].queue.red droppedDataRate:vector ETV
attr interpolationmode linear
attr recordingmode vector
attr source throughput(packetDropped)
attr title "dropped data rate"
attr unit bps
vector 59 DDoSNetwork.router.eth[1].queue.red flowIncomingPacketLengths:vector ETV
attr interpolationmode none
attr recordingmode vector
attr source "packetLength(demuxFlow(merge(packetPushedIn, packetPulledIn)))"
attr title "flow specific incoming packet lengths"
attr unit b
vector 60 DDoSNetwork.router.eth[1].queue.red flowIncomingDataRate:vector ETV
attr interpolationmode linear
attr recordingmode vector
attr source "throughput(demuxFlow(merge(packetPushedIn, packetPulledIn)))"
attr title "flow specific incoming data rate"
attr unit bps
vector 61 DDoSNetwork.router.eth[1].queue.red flowOutgoingPacketLengths:vector ETV
attr interpolationmode none
attr recordingmode vector
attr source "packetLength(demuxFlow(merge(packetPushedOut, packetPulledOut)))"
attr title "flow specific outgoing packet lengths"
attr unit b
vector 62 DDoSNetwork.router.eth[1].queue.red flowOutgoingDataRate:vector ETV
attr interpolationmode linear
attr recordingmode vector
attr source "throughput(demuxFlow(merge(packetPushedOut, packetPulledOut)))"
attr title "flow specific outgoing data rate"
attr unit bps
vector 63 DDoSNetwork.router.eth[1].queue.red flowDroppedPacketLengths:vector ETV
attr interpolationmode none
attr recordingmode vector
attr source packetLength(demuxFlow(packetDropped))
attr title "flow specific dropped packet lengths"
attr unit b
vector 64 DDoSNetwork.router.eth[1].queue.red flowDroppedDataRate:vector ETV
attr interpolationmode linear
attr recordingmode vector
attr source throughput(demuxFlow(packetDropped))
attr title "flow specific dropped data rate"
attr unit bps
vector 65 DDoSNetwork.router.eth[1].queue.red packetDropCongestion:vector(packetBytes) ETV
attr interpolationmode none
attr recordingmode vector(packetBytes)
attr source packetDropReasonIsCongestion(packetDropped)
attr title "packet drop: congestion, packetBytes"
vector 66 DDoSNetwork.router.eth[1].queue.fifo queueLength:vector ETV
attr autoWarmupFilter false
attr interpolationmode sample-hold
attr recordingmode vector
attr source "warmup(atomic(constant0(packetPushEnded) + count(packetPushStarted) - count(packetPulled) - count(packetRemoved) - count(packetDropped)))"
attr title "queue length"
attr unit pk
vector 67 DDoSNetwork.router.eth[1].queue.fifo queueBitLength:vector ETV
attr autoWarmupFilter false
attr interpolationmode sample-hold
attr recordingmode vector
attr source "warmup(atomic(constant0(packetPushEnded) + sum(packetLength(packetPushStarted)) - sum(packetLength(packetPulled)) - sum(packetLength(packetRemoved)) - sum(packetLength(packetDropped))))"
attr title "queue bit length"
attr unit b
vector 68 DDoSNetwork.router.eth[1].queue.fifo queueingTime:vector ETV
attr interpolationmode none
attr recordingmode vector
attr source queueingTime(packetPulled)
attr title "queueing times"
attr unit s
vector 69 DDoSNetwork.router.eth[1].queue.fifo incomingPacketLengths:vector ETV
attr interpolationmode none
attr recordingmode vector
attr source packetLength(packetPushStarted)
attr title "incoming packet lengths"
attr unit b
vector 70 DDoSNetwork.router.eth[1].queue.fifo incomingDataRate:vector ETV
attr interpolationmode linear
attr recordingmode vector
attr source throughput(packetPushStarted)
attr title "incoming datarate"
attr unit bps
vector 71 DDoSNetwork.router.eth[1].queue.fifo outgoingPacketLengths:vector ETV
attr interpolationmode none
attr recordingmode vector
attr source packetLength(packetPulled)
attr title "outgoing packet lengths"
attr unit b
vector 72 DDoSNetwork.router.eth[1].queue.fifo outgoingDataRate:vector ETV
attr interpolationmode linear
attr recordingmode vector
attr source throughput(packetPulled)
attr title "outgoing datarate"
attr unit bps
vector 73 DDoSNetwork.router.eth[1].queue.fifo droppedPacketLengthsQueueOverflow:vector ETV
attr interpolationmode none
attr recordingmode vector
attr source packetLength(packetDropReasonIsQueueOverflow(packetDropped))
attr title "dropped packet lengths: queue overflow"
attr unit b
vector 74 DDoSNetwork.router.eth[1].queue.fifo flowQueueingTime:vector ETV
attr interpolationmode none
attr recordingmode vector
attr source queueingTime(demuxFlow(packetPulled))
attr title "flow queueing times"
attr unit s
vector 75 DDoSNetwork.router.eth[1].queue.fifo flowIncomingDataRate:vector ETV
attr interpolationmode linear
attr recordingmode vector
attr source throughput(flowPacketLength(demuxFlow(packetPushStarted)))
attr title "flow specific incoming data rate"
attr unit bps
vector 76 DDoSNetwork.router.eth[1].queue.fifo flowOutgoingDataRate:vector ETV
attr interpolationmode linear
attr recordingmode vector
attr source throughput(flowPacketLength(demuxFlow(packetPulled)))
attr title "flow specific outgoing data rate"
attr unit bps
vector 77 DDoSNetwork.router.eth[1].queue queueLength:vector ETV
attr autoWarmupFilter false
attr interpolationmode sample-hold
attr recordingmode vector
attr source "warmup(atomic(constant0(localSignal(packetPushEnded)) + count(localSignal(packetPushStarted)) - count(localSignal(packetPulled)) - count(localSignal(packetRemoved)) - count(localSignal(packetDropped))))"
attr title "queue length"
attr unit pk
vector 78 DDoSNetwork.router.eth[1].queue queueBitLength:vector ETV
attr autoWarmupFilter false
attr interpolationmode sample-hold
attr recordingmode vector
attr source "warmup(atomic(constant0(localSignal(packetPushEnded)) + sum(packetLength(localSignal(packetPushStarted))) - sum(packetLength(localSignal(packetPulled))) - sum(packetLength(localSignal(packetRemoved))) - sum(packetLength(localSignal(packetDropped)))))"
attr title "queue bit length"
attr unit b
vector 79 DDoSNetwork.router.eth[1].queue queueingTime:vector ETV
attr interpolationmode none
attr recordingmode vector
attr source queueingTime(localSignal(packetPulled))
attr title "queueing times"
attr unit s
vector 80 DDoSNetwork.router.eth[1].queue incomingPacketLengths:vector ETV
attr interpolationmode none
attr recordingmode vector
attr source packetLength(localSignal(packetPushStarted))
attr title "incoming packet lengths"
attr unit b
vector 81 DDoSNetwork.router.eth[1].queue incomingDataRate:vector ETV
attr interpolationmode linear
attr recordingmode vector
attr source throughput(localSignal(packetPushStarted))
attr title "incoming datarate"
attr unit bps
vector 82 DDoSNetwork.router.eth[1].queue outgoingPacketLengths:vector ETV
attr interpolationmode none
attr recordingmode vector
attr source packetLength(localSignal(packetPulled))
attr title "outgoing packet lengths"
attr unit b
vector 83 DDoSNetwork.router.eth[1].queue outgoingDataRate:vector ETV
attr interpolationmode linear
attr recordingmode vector
attr source throughput(localSignal(packetPulled))
attr title "outgoing datarate"
attr unit bps
vector 84 DDoSNetwork.router.eth[1].queue droppedPacketLengthsQueueOverflow:vector ETV
attr interpolationmode none
attr recordingmode vector
attr source packetLength(packetDropReasonIsQueueOverflow(localSignal(packetDropped)))
attr title "dropped packet lengths: queue overflow"
attr unit b
vector 85 DDoSNetwork.router.eth[1].queue flowQueueingTime:vector ETV
attr interpolationmode none
attr recordingmode vector
attr source queueingTime(demuxFlow(localSignal(packetPulled)))
attr title "flow queueing times"
attr unit s
vector 86 DDoSNetwork.router.eth[1].queue flowIncomingDataRate:vector ETV
attr interpolationmode linear
attr recordingmode vector
attr source throughput(flowPacketLength(demuxFlow(localSignal(packetPushStarted))))
attr title "flow specific incoming data rate"
attr unit bps
vector 87 DDoSNetwork.router.eth[1].queue flowOutgoingDataRate:vector ETV
attr interpolationmode linear
attr recordingmode vector
attr source throughput(flowPacketLength(demuxFlow(localSignal(packetPulled))))
attr title "flow specific outgoing data rate"
attr unit bps
vector 88 DDoSNetwork.router.eth[1].mac txPk:vector(packetBytes) ETV
attr interpolationmode none
attr recordingmode vector(packetBytes)
attr source packetSentToLower
attr title "packets transmitted, packetBytes"
vector 89 DDoSNetwork.router.eth[1].mac rxPkOk:vector(packetBytes) ETV
attr interpolationmode none
attr recordingmode vector(packetBytes)
attr source rxPkOk
attr title "packets received OK, packetBytes"
vector 90 DDoSNetwork.router.eth[1].mac passedUpPk:vector(packetBytes) ETV
attr interpolationmode none
attr recordingmode vector(packetBytes)
attr source packetSentToUpper
attr title "packets passed to higher layer, packetBytes"
vector 91 DDoSNetwork.router.eth[1].mac txPausePkUnits:vector ETV
attr interpolationmode none
attr recordingmode vector
attr title "pause units sent"
vector 92 DDoSNetwork.router.eth[1].mac rxPausePkUnits:vector ETV
attr interpolationmode none
attr recordingmode vector
attr title "pause units received"
vector 93 DDoSNetwork.router.eth[1].mac packetReceivedFromUpper:vector(packetBytes) ETV
attr interpolationmode none
attr recordingmode vector(packetBytes)
attr source packetReceivedFromUpper
attr title "packet bytes from higher layer, packetBytes"
vector 94 DDoSNetwork.router.eth[1].mac packetDropIncorrectlyReceived:vector(packetBytes) ETV
attr interpolationmode none
attr recordingmode vector(packetBytes)
attr source packetDropReasonIsIncorrectlyReceived(packetDropped)
attr title "packet drop: incorrectly received, packetBytes"
vector 95 DDoSNetwork.router.eth[1].mac packetDropInterfaceDown:vector(packetBytes) ETV
attr interpolationmode none
attr recordingmode vector(packetBytes)
attr source packetDropReasonIsInterfaceDown(packetDropped)
attr title "packet drop: interface down, packetBytes"
vector 96 DDoSNetwork.router.eth[1].mac packetDropNotAddressedToUs:vector(packetBytes) ETV
attr interpolationmode none
attr recordingmode vector(packetBytes)
attr source packetDropReasonIsNotAddressedToUs(packetDropped)
attr title "packet drop: not addressed to us, packetBytes"
vector 97 DDoSNetwork.router.eth[1] packetDropInterfaceDown:vector(packetBytes) ETV
attr interpolationmode none
attr recordingmode vector(packetBytes)
attr source packetDropReasonIsInterfaceDown(packetDropped)
attr title "packet drops: interface down, packetBytes"
vector 98 DDoSNetwork.router.eth[1] packetDropNoCarrier:vector(packetBytes) ETV
attr interpolationmode none
attr recordingmode vector(packetBytes)
attr source packetDropReasonIsNoCarrier(packetDropped)
attr title "packet drops: no carrier, packetBytes"
vector 99 DDoSNetwork.router.eth[2].queue.red incomingPacketLengths:vector ETV
attr interpolationmode none
attr recordingmode vector
attr source "packetLength(merge(packetPushedIn, packetPulledIn))"
attr title "incoming packet lengths"
attr unit b
vector 100 DDoSNetwork.router.eth[2].queue.red incomingDataRate:vector ETV
attr interpolationmode linear
attr recordingmode vector
attr source "throughput(merge(packetPushedIn, packetPulledIn))"
attr title "incoming data rate"
attr unit bps
vector 101 DDoSNetwork.router.eth[2].queue.red outgoingPacketLengths:vector ETV
attr interpolationmode none
attr recordingmode vector
attr source "packetLength(merge(packetPushedOut, packetPulledOut))"
attr title "outgoing packet lengths"
attr unit b
vector 102 DDoSNetwork.router.eth[2].queue.red outgoingDataRate:vector ETV
attr interpolationmode linear
attr recordingmode vector
attr source "throughput(merge(packetPushedOut, packetPulledOut))"
attr title "outgoing data rate"
attr unit bps
vector 103 DDoSNetwork.router.eth[2].queue.red droppedPacketLengths:vector ETV
attr interpolationmode none
attr recordingmode vector
attr source packetLength(packetDropped)
attr title "dropped packet lengths"
attr unit b
vector 104 DDoSNetwork.router.eth[2].queue.red droppedDataRate:vector ETV
attr interpolationmode linear
attr recordingmode vector
attr source throughput(packetDropped)
attr title "dropped data rate"
attr unit bps
vector 105 DDoSNetwork.router.eth[2].queue.red flowIncomingPacketLengths:vector ETV
attr interpolationmode none
attr recordingmode vector
attr source "packetLength(demuxFlow(merge(packetPushedIn, packetPulledIn)))"
attr title "flow specific incoming packet lengths"
attr unit b
vector 106 DDoSNetwork.router.eth[2].queue.red flowIncomingDataRate:vector ETV
attr interpolationmode linear
attr recordingmode vector
attr source "throughput(demuxFlow(merge(packetPushedIn, packetPulledIn)))"
attr title "flow specific incoming data rate"
attr unit bps
vector 107 DDoSNetwork.router.eth[2].queue.red flowOutgoingPacketLengths:vector ETV
attr interpolationmode none
attr recordingmode vector
attr source "packetLength(demuxFlow(merge(packetPushedOut, packetPulledOut)))"
attr title "flow specific outgoing packet lengths"
attr unit b
vector 108 DDoSNetwork.router.eth[2].queue.red flowOutgoingDataRate:vector ETV
attr interpolationmode linear
attr recordingmode vector
attr source "throughput(demuxFlow(merge(packetPushedOut, packetPulledOut)))"
attr title "flow specific outgoing data rate"
attr unit bps
vector 109 DDoSNetwork.router.eth[2].queue.red flowDroppedPacketLengths:vector ETV
attr interpolationmode none
attr recordingmode vector
attr source packetLength(demuxFlow(packetDropped))
attr title "flow specific dropped packet lengths"
attr unit b
vector 110 DDoSNetwork.router.eth[2].queue.red flowDroppedDataRate:vector ETV